# vtk DataFile Version 2.0
Results
ASCII
DATASET STRUCTURED_POINTS
DIMENSIONS 100 100 1
ORIGIN 0 0 0
SPACING 0.01 0.01 1
POINT_DATA 10000
SCALARS PRESSURE double
LOOKUP_TABLE default
235.526161
124.696286
75.4043
51.705435
39.043251
31.506256
26.584468
23.132448
20.580266
18.618471
17.065357
15.807058
14.768394
13.897616
13.157877
12.522206
11.970389
11.486976
11.059946
10.679811
10.338976
10.031297
9.751743
9.496163
9.261102
9.043662
8.841394
8.652223
8.474374
8.306326
8.146769
7.994571
7.84875
7.708451
7.57293
7.441536
7.313701
7.188926
7.066773
6.946857
6.828842
6.712431
6.597363
6.48341
6.370371
6.25807
6.146353
6.035085
5.92415
5.813444
5.70288
5.59238
5.481879
5.371321
5.260658
5.149848
5.03886
4.927663
4.816236
4.70456
4.592621
4.480408
4.367914
4.255133
4.142063
4.028703
3.915055
3.801121
3.686906
3.572413
3.45765
3.342623
3.227339
3.111807
2.996034
2.88003
2.763803
2.647362
2.530718
2.413879
2.296855
2.179656
2.062292
1.944772
1.827108
1.70931
1.591388
1.473354
1.355221
1.237001
1.118709
1.000362
0.881978
0.763582
0.645203
0.526883
0.40869
0.290736
0.173243
0.056681
146.356036
108.821449
78.061297
57.729259
44.691301
36.126114
30.262885
26.073955
22.964337
20.580044
18.702278
17.190282
15.950033
14.916586
14.043743
13.297796
12.653598
12.092024
11.598279
11.160745
10.770174
10.419122
10.101526
9.812407
9.547637
9.303769
9.077904
8.867587
8.670733
8.485554
8.310517
8.144298
7.985752
7.833883
7.687824
7.546819
7.410205
7.277403
7.147903
7.021256
6.89707
6.774996
6.65473
6.536003
6.418577
6.302244
6.18682
6.072143
5.958073
5.844484
5.731269
5.618331
5.505588
5.392969
5.280412
5.167862
5.055274
4.942609
4.829834
4.716922
4.603849
4.490598
4.377152
4.2635
4.149633
4.035546
3.921233
3.806693
3.691924
3.576929
3.461709
3.346267
3.230607
3.114734
2.998655
2.882374
2.765899
2.649237
2.532395
2.415381
2.298203
2.180869
2.063388
1.945769
1.828021
1.710154
1.592179
1.474105
1.355945
1.237712
1.11942
1.001087
0.882731
0.764378
0.646058
0.527814
0.409706
0.291823
0.174291
0.057251
97.545319
86.172177
70.290182
56.459001
45.866581
38.044015
32.267004
27.93615
24.623082
22.035089
19.97343
18.301757
16.92487
15.774952
14.802713
13.971636
13.254182
12.629243
12.080402
11.594714
11.161854
10.77349
10.422833
10.104302
9.81327
9.545874
9.298863
9.06949
8.855416
8.65464
8.465447
8.286353
8.116077
7.953504
7.797664
7.64771
7.502898
7.362579
7.226179
7.093196
6.963184
6.835754
6.710559
6.587294
6.46569
6.345508
6.226539
6.108596
5.991515
5.875152
5.75938
5.644087
5.529174
5.414556
5.300158
5.185913
5.071765
4.957665
4.843571
4.729445
4.615257
4.500981
4.386595
4.272081
4.157425
4.042613
3.927638
3.812492
3.69717
3.58167
3.465989
3.350128
3.234088
3.117869
3.001477
2.884914
2.768184
2.651292
2.534245
2.417048
2.299707
2.18223
2.064623
1.946895
1.829054
1.711108
1.593067
1.474942
1.356742
1.238481
1.120173
1.001834
0.883482
0.76514
0.646837
0.528608
0.410498
0.29256
0.174847
0.057376
70.502399
68.031758
60.468253
51.949981
44.272007
37.916361
32.824966
28.780557
25.556754
22.963799
20.854594
19.118448
17.672738
16.455639
15.420522
14.531854
13.762251
13.090366
12.49937
11.975857
11.509038
11.09015
10.712013
10.368697
10.055268
9.767592
9.502186
9.256094
9.0268
8.812145
8.610276
8.41959
8.238698
8.066392
7.901619
7.743457
7.591099
7.443835
7.301039
7.162163
7.026718
6.894277
6.764458
6.636925
6.511381
6.387561
6.265232
6.144185
6.024239
5.905229
5.787012
5.669462
5.552465
5.435924
5.31975
5.203867
5.088209
4.972716
4.857338
4.74203
4.626753
4.511475
4.396167
4.280806
4.165371
4.049844
3.934213
3.818467
3.702595
3.586591
3.47045
3.354169
3.237746
3.121179
3.00447
2.887619
2.770629
2.653503
2.536245
2.418858
2.301348
2.183719
2.065979
1.948134
1.830191
1.712157
1.594041
1.475852
1.357601
1.239298
1.120958
1.002593
0.884222
0.765864
0.647542
0.529284
0.411117
0.293071
0.175163
0.057375
54.594052
54.984201
51.601091
46.600663
41.355103
36.524458
32.33594
28.80436
25.859576
23.408761
21.362701
19.644701
18.191995
16.954345
15.891882
14.973007
14.172602
13.470598
12.850855
12.300306
11.808291
11.36606
10.966373
10.603206
10.271512
9.967042
9.686194
9.425902
9.183543
8.956865
8.743922
8.543033
8.352733
8.171747
7.998963
7.833402
7.674206
7.520621
7.371981
7.227697
7.087249
6.950176
6.81607
6.684568
6.555347
6.428123
6.302641
6.178676
6.056025
5.934512
5.813979
5.694283
5.575302
5.456923
5.339051
5.221597
5.104487
4.987653
4.871035
4.754583
4.63825
4.521998
4.405793
4.289604
4.173407
4.05718
3.940905
3.824566
3.708151
3.591649
3.475051
3.358352
3.241547
3.124631
3.007604
2.890464
2.773211
2.655847
2.538373
2.420791
2.303106
2.185321
2.067441
1.949471
1.831418
1.713287
1.595087
1.476825
1.35851
1.240153
1.121766
1.003359
0.88495
0.766552
0.648185
0.529867
0.411616
0.293445
0.175357
0.057332
44.517035
45.709903
44.351247
41.496478
38.023285
34.490427
31.189977
28.241369
25.668427
23.448969
21.542747
19.90566
18.496197
17.277862
16.219653
15.295689
14.484553
13.768569
13.133148
12.566219
12.057762
11.599425
11.184213
10.80624
10.460534
10.142869
9.849645
9.577775
9.324606
9.087848
8.865516
8.655886
8.457453
8.268903
8.089083
7.91698
7.751703
7.592463
7.438567
7.289396
7.144405
7.00311
6.865078
6.729928
6.597318
6.466944
6.338535
6.21185
6.086675
5.962817
5.840106
5.718391
5.597534
5.477417
5.357932
5.238984
5.120489
5.002372
4.884567
4.767016
4.649667
4.532475
4.415401
4.298411
4.181474
4.064565
3.947661
3.830742
3.713794
3.596802
3.479754
3.362642
3.245458
3.128196
3.010851
2.893422
2.775905
2.6583
2.540608
2.422828
2.304964
2.187018
2.068993
1.950893
1.832722
1.714488
1.596195
1.47785
1.359462
1.24104
1.122592
1.004129
0.885665
0.76721
0.648778
0.530382
0.412033
0.293737
0.175489
0.057274
37.67087
38.98713
38.597516
37.010718
34.751132
32.22399
29.692171
27.30271
25.123795
23.175939
21.45366
19.938994
18.60927
17.441256
16.413178
15.505545
14.701352
13.985978
13.346948
12.77366
12.257113
11.789665
11.364812
10.977009
10.621513
10.294257
9.991742
9.710948
9.449259
9.204406
8.974409
8.757541
8.55229
8.357328
8.171485
7.993733
7.823161
7.658963
7.500426
7.346914
7.197866
7.052779
6.911206
6.772749
6.637052
6.503798
6.372704
6.243515
6.116006
5.989975
5.865239
5.741639
5.619028
5.497279
5.376277
5.255919
5.136113
5.01678
4.897845
4.779246
4.660926
4.542834
4.424927
4.307165
4.189514
4.071944
3.95443
3.836949
3.719481
3.60201
3.484522
3.367004
3.249447
3.131842
3.014184
2.896466
2.778686
2.660841
2.542929
2.42495
2.306904
2.188793
2.070619
1.952384
1.834091
1.715747
1.597354
1.478919
1.360449
1.241951
1.123432
1.004902
0.886369
0.767844
0.649335
0.530852
0.412399
0.293979
0.175587
0.057212
32.739092
33.97023
34.04097
33.197745
31.746534
29.962228
28.052009
26.153505
24.348104
22.677333
21.15696
19.787387
18.560632
17.464713
16.486257
15.611959
14.829333
14.127043
13.495006
12.924358
12.407367
11.937311
11.508363
11.11547
10.754251
10.420903
10.112118
9.825015
9.557077
9.306106
9.070172
8.84758
8.636839
8.436632
8.245798
8.063307
7.888245
7.719803
7.557258
7.39997
7.247366
7.098933
6.954217
6.812809
6.674343
6.538494
6.404967
6.273501
6.143861
6.015836
5.889237
5.763896
5.63966
5.516395
5.393978
5.2723
5.151266
5.030788
4.910788
4.791198
4.671957
4.553009
4.434306
4.315807
4.197472
4.079268
3.961167
3.843142
3.725171
3.607236
3.489318
3.371405
3.253483
3.135542
3.017575
2.899574
2.781533
2.663449
2.545318
2.427139
2.30891
2.190632
2.072305
1.953932
1.835513
1.717053
1.598555
1.480024
1.361464
1.242883
1.124284
1.005677
0.887067
0.768462
0.649868
0.53129
0.412732
0.294193
0.175669
0.057152
29.017881
30.113727
30.398388
29.992758
29.07503
27.826381
26.40013
24.911197
23.437784
22.028328
20.709458
19.492963
18.381159
17.370707
16.455179
15.626703
14.876976
14.197855
13.581674
13.021401
12.510684
12.043849
11.615858
11.222257
10.859119
10.522987
10.210813
9.919915
9.64793
9.39277
9.152592
8.925768
8.710852
8.506565
8.311768
8.12545
7.94671
7.774744
7.608835
7.448343
7.292693
7.141372
6.993921
6.849927
6.709019
6.570866
6.43517
6.301661
6.170101
6.040271
5.911978
5.785048
5.659323
5.534661
5.410938
5.288039
5.165863
5.044317
4.923321
4.802802
4.682694
4.562938
4.443484
4.324284
4.205298
4.08649
3.967827
3.849281
3.730827
3.612443
3.494111
3.375814
3.257538
3.13927
3.021
2.90272
2.784423
2.666103
2.547755
2.429377
2.310966
2.19252
2.074039
1.955525
1.836977
1.718397
1.59979
1.481157
1.362502
1.24383
1.125146
1.006454
0.88776
0.769069
0.650384
0.531709
0.413045
0.294392
0.175745
0.057097
26.106862
27.06841
27.446097
27.299872
26.734446
25.868134
24.810935
23.65337
22.463507
21.288739
20.159582
19.093846
18.100333
17.181778
16.337049
15.562698
14.854014
14.205726
13.612435
13.068887
12.57012
12.111543
11.688962
11.29858
10.936983
10.601111
10.288231
9.995904
9.721956
9.46445
9.22166
8.992047
8.774238
8.567007
8.369259
8.180016
7.9984
7.823628
7.654996
7.491872
7.33369
7.179942
7.030168
6.883957
6.74094
6.600782
6.463184
6.327874
6.194609
6.063169
5.933357
5.804994
5.67792
5.551991
5.427075
5.303056
5.179828
5.057297
4.935378
4.813994
4.693078
4.572566
4.452406
4.332548
4.212947
4.093566
3.97437
3.855327
3.736412
3.6176
3.498869
3.380203
3.261584
3.142999
3.024436
2.905884
2.787337
2.668785
2.550224
2.431648
2.313055
2.194442
2.075807
1.95715
1.838471
1.71977
1.60105
1.482311
1.363557
1.244791
1.126015
1.007234
0.888451
0.769669
0.65089
0.532117
0.413349
0.294585
0.175821
0.057052
23.764164
24.606955
25.017717
25.026186
24.694747
24.100776
23.322106
22.427839
21.474137
20.503537
19.546284
18.622509
17.744548
16.919022
16.148543
15.433025
14.770658
14.158599
13.593452
13.071591
12.589367
12.143242
11.729867
11.346119
10.989121
10.656244
10.345097
10.053514
9.779541
9.521415
9.277552
9.046523
8.827045
8.617965
8.418246
8.226953
8.043247
7.866373
7.695648
7.53046
7.370255
7.214536
7.062851
6.914795
6.770001
6.628139
6.488909
6.352041
6.217292
6.08444
5.953287
5.823652
5.695374
5.568306
5.442314
5.31728
5.193096
5.069665
4.946899
4.82472
4.703056
4.581844
4.461027
4.340553
4.220377
4.100458
3.980759
3.861247
3.741894
3.622674
3.503564
3.384544
3.265596
3.146706
3.027859
2.909045
2.790254
2.671476
2.552706
2.433937
2.315165
2.196386
2.077598
1.958799
1.839987
1.721163
1.602328
1.483481
1.364624
1.24576
1.12689
1.008016
0.88914
0.770265
0.651391
0.532519
0.413648
0.294777
0.175901
0.057018
21.835672
22.577527
22.991631
23.092407
22.91758
22.518117
21.948873
21.261744
20.501663
19.704988
18.899507
18.105357
17.336328
16.60122
15.905075
15.2502
14.636993
14.06456
13.531185
13.034658
12.572514
12.142191
11.741144
11.366907
11.017139
10.689647
10.382397
10.093514
9.821277
9.564119
9.320608
9.089446
8.869454
8.659564
8.458806
8.266304
8.081264
7.902967
7.730764
7.564064
7.402336
7.245095
7.091905
6.94237
6.796131
6.652864
6.512272
6.37409
6.238077
6.104012
5.971697
5.840954
5.711618
5.583544
5.456596
5.330655
5.205612
5.081368
4.957834
4.83493
4.712582
4.590727
4.469304
4.348261
4.22755
4.10713
3.98696
3.867008
3.747243
3.627638
3.508168
3.388812
3.269551
3.150369
3.031251
2.912183
2.793156
2.67416
2.555187
2.436229
2.317281
2.198339
2.079399
1.960459
1.841516
1.722568
1.603617
1.48466
1.365699
1.246735
1.127768
1.008799
0.889829
0.77086
0.65189
0.53292
0.413948
0.294973
0.175991
0.056997
20.218644
20.875852
21.278871
21.434231
21.365051
21.105238
20.693526
20.1686
19.565784
18.915246
18.2414
17.563083
16.894185
16.244457
15.620336
15.025709
14.462553
13.931464
13.43207
12.963343
12.523838
12.111866
11.725612
11.363226
11.02288
10.702809
10.401332
10.116866
9.847937
9.593174
9.351316
9.1212
8.901763
8.692029
8.49111
8.298192
8.112536
7.933469
7.760375
7.592697
7.429928
7.271604
7.117305
6.96665
6.819291
6.674912
6.533226
6.393972
6.256913
6.121833
5.988537
5.856847
5.726602
5.597654
5.469871
5.343133
5.217329
5.092361
4.96814
4.844583
4.721617
4.599176
4.477201
4.355636
4.234434
4.11355
3.992944
3.872583
3.752433
3.632466
3.512658
3.392985
3.273428
3.153968
3.034591
2.915282
2.796029
2.676822
2.557652
2.438511
2.319392
2.200291
2.081202
1.962122
1.843048
1.723978
1.60491
1.485844
1.366778
1.247713
1.128648
1.009583
0.890519
0.771454
0.652389
0.533323
0.414252
0.295176
0.17609
0.056992
18.841962
19.428366
19.813771
20.000595
20.003156
19.844257
19.551393
19.153347
18.677625
18.148814
17.587764
17.011391
16.432874
15.862085
15.306104
14.769746
14.256045
13.766673
13.302287
12.862805
12.447631
12.055822
11.686211
11.337504
11.008347
10.697378
10.403255
10.124683
9.860429
9.609325
9.37028
9.142276
8.924367
8.715681
8.515412
8.322818
8.137221
7.957996
7.784571
7.616423
7.453074
7.294086
7.139061
6.987633
6.83947
6.694267
6.551747
6.411658
6.273769
6.137871
6.003771
5.871296
5.740287
5.6106
5.482102
5.354675
5.22821
5.102608
4.97778
4.853644
4.730127
4.607161
4.484687
4.362649
4.240999
4.119691
3.998685
3.877945
3.757439
3.637137
3.517013
3.397043
3.277207
3.157485
3.037862
2.918323
2.798855
2.679446
2.560088
2.44077
2.321486
2.202229
2.082995
1.963779
1.844576
1.725385
1.606202
1.487027
1.367856
1.24869
1.129527
1.010367
0.891208
0.77205
0.652891
0.533729
0.414562
0.295388
0.176203
0.057004
17.654826
18.181881
18.54725
18.751224
18.802719
18.717241
18.514441
18.215771
17.842556
17.414619
16.949451
16.461842
15.963836
15.464906
14.972248
14.491125
14.025209
13.576898
13.147598
12.737958
12.348061
11.977581
11.625906
11.292231
10.975627
10.6751
10.389626
10.118183
9.859769
9.613418
9.378205
9.153256
8.93775
8.730916
8.532037
8.340449
8.155534
7.976723
7.803489
7.635349
7.471859
7.312607
7.15722
7.005352
6.856688
6.710938
6.567838
6.427144
6.288636
6.15211
6.017381
5.88428
5.752651
5.622355
5.493263
5.365256
5.238228
5.112082
4.986728
4.862087
4.738085
4.614655
4.491737
4.369275
4.247221
4.12553
4.00416
3.883074
3.762241
3.641629
3.521213
3.400967
3.28087
3.160904
3.04105
2.921294
2.801622
2.682021
2.562482
2.442995
2.323552
2.204146
2.084771
1.965422
1.846094
1.726783
1.607488
1.488204
1.36893
1.249664
1.130405
1.011149
0.891897
0.772646
0.653394
0.53414
0.41488
0.295611
0.17633
0.057034
16.619987
17.097081
17.442124
17.654332
17.739257
17.707547
17.573358
17.35274
17.06221
16.717654
16.33358
15.922691
15.495722
15.061453
14.626857
14.197298
13.776767
13.368112
12.973251
12.593368
12.229072
11.880534
11.547602
11.229886
10.92683
10.637768
10.361966
10.098654
9.847048
9.606371
9.375865
9.154794
8.942459
8.738195
8.541373
8.351406
8.167743
7.989871
7.817314
7.649627
7.486404
7.327264
7.171859
7.019868
6.870992
6.72496
6.581522
6.440445
6.30152
6.164552
6.029363
5.89579
5.763684
5.632908
5.503337
5.374857
5.247364
5.120762
4.994964
4.869891
4.74547
4.621636
4.498329
4.375494
4.253082
4.131047
4.009349
3.887952
3.766821
3.645927
3.525242
3.404742
3.284404
3.16421
3.044141
2.924181
2.804317
2.684535
2.564825
2.445177
2.325581
2.206032
2.086521
1.967043
1.847593
1.728167
1.608761
1.489372
1.369997
1.250633
1.131277
1.011929
0.892585
0.773243
0.653901
0.534556
0.415205
0.295846
0.176473
0.057085
15.709511
16.144332
16.469832
16.684722
16.79243
16.800331
16.718706
16.559621
16.335889
16.060207
15.744522
15.399621
15.034906
14.658329
14.276429
13.894444
13.51645
13.14553
12.783926
12.433191
12.094324
11.767883
11.454083
11.152881
10.864039
10.587176
10.321817
10.067417
9.823397
9.589156
9.364088
9.147597
8.939098
8.73803
8.543855
8.35606
8.174162
7.997706
7.826266
7.659443
7.496865
7.338186
7.183086
7.031266
6.882453
6.73639
6.592843
6.451595
6.312447
6.175215
6.039728
5.905833
5.773385
5.642255
5.51232
5.383472
5.255609
5.128638
5.002475
4.877043
4.752269
4.628092
4.50445
4.38129
4.258564
4.136227
4.014239
3.892563
3.771165
3.650015
3.529086
3.408354
3.287795
3.167391
3.047122
2.926973
2.806929
2.686977
2.567106
2.447305
2.327565
2.207878
2.088237
1.968636
1.849069
1.729531
1.610018
1.490526
1.371052
1.251592
1.132143
1.012704
0.89327
0.77384
0.65441
0.534978
0.41554
0.296093
0.176633
0.057155
14.902044
15.300906
15.608151
15.822295
15.94541
15.982641
15.941513
15.83115
15.661518
15.442762
15.184682
14.896365
14.585953
14.260526
13.926087
13.587596
13.24906
12.913633
12.583732
12.261147
11.947151
11.642589
11.347966
11.063517
10.789268
10.525082
10.270707
10.025802
9.789968
9.562766
9.343736
9.132406
8.928307
8.730974
8.539955
8.354816
8.175138
8.000525
7.830602
7.665013
7.503427
7.34553
7.191031
7.03966
6.891162
6.745303
6.601865
6.460646
6.321459
6.184131
6.048503
5.914428
5.781771
5.650405
5.520218
5.391102
5.262962
5.135707
5.009256
4.883534
4.758474
4.63401
4.510088
4.386653
4.263658
4.141059
4.018817
3.896895
3.77526
3.653882
3.532734
3.411792
3.291032
3.170435
3.049983
2.929659
2.809449
2.689339
2.569316
2.449372
2.329496
2.209679
2.089915
1.970195
1.850516
1.73087
1.611254
1.491662
1.372092
1.252539
1.133
1.013473
0.893952
0.774437
0.654922
0.535406
0.415884
0.296353
0.176809
0.057248
14.180987
14.549095
14.83957
15.050896
15.184273
15.24331
15.233555
15.161949
15.036272
14.86464
14.655078
14.415205
14.152013
13.871737
13.579796
13.280795
12.978561
12.67621
12.376221
12.080515
11.790543
11.507356
11.231675
10.963954
10.704432
10.453178
10.210127
9.975116
9.747906
9.528205
9.315682
9.109986
8.91075
8.717603
8.530177
8.34811
8.171049
7.998655
7.830603
7.666582
7.506298
7.349475
7.19585
7.045179
6.897233
6.751795
6.608668
6.467664
6.328611
6.191347
6.055725
5.921606
5.788863
5.657379
5.527043
5.397757
5.269428
5.141971
5.015307
4.889366
4.76408
4.639389
4.515238
4.391575
4.268355
4.145535
4.023075
3.90094
3.779098
3.657519
3.536177
3.415047
3.294106
3.173336
3.052717
2.932233
2.811869
2.691612
2.571449
2.451371
2.331367
2.211428
2.091546
1.971715
1.851928
1.73218
1.612464
1.492778
1.373115
1.253473
1.133847
1.014234
0.89463
0.775032
0.655437
0.53584
0.416238
0.296627
0.177003
0.057362
13.533245
13.874919
14.150139
14.357446
14.497477
14.572771
14.587447
14.546817
14.456983
14.324448
14.155784
13.957363
13.735159
13.494613
13.240566
12.977225
12.70818
12.436427
12.164425
11.894149
11.627151
11.364616
11.107424
10.856192
10.611329
10.373069
10.141507
9.916629
9.698336
9.486465
9.280803
9.081105
8.887102
8.698511
8.51504
8.336398
8.162294
7.992444
7.826572
7.664413
7.50571
7.350221
7.197716
7.047975
6.900794
6.755978
6.613348
6.472732
6.333973
6.196923
6.061444
5.927408
5.794698
5.663202
5.53282
5.403456
5.275023
5.147442
5.020637
4.894541
4.769091
4.644228
4.519899
4.396056
4.272653
4.149649
4.027007
3.904692
3.782673
3.66092
3.539408
3.418112
3.297011
3.176084
3.055315
2.934686
2.814182
2.69379
2.573499
2.453296
2.333172
2.213119
2.093128
1.973191
1.853303
1.733456
1.613647
1.493869
1.374118
1.25439
1.13468
1.014985
0.895302
0.775625
0.655952
0.536278
0.4166
0.296914
0.177215
0.057498
12.948355
13.267195
13.528621
13.731271
13.875419
13.962851
13.996645
13.98089
13.920394
13.820384
13.686247
13.523306
13.336645
13.13099
12.910628
12.679361
12.440505
12.196892
11.950903
11.704506
11.459294
11.216535
10.977211
10.742062
10.511624
10.286263
10.066203
9.851557
9.642345
9.438515
9.23996
9.04653
8.858044
8.674298
8.495075
8.320147
8.149284
7.982255
7.81883
7.658786
7.501908
7.347984
7.196816
7.048211
6.901989
6.757976
6.616012
6.475943
6.337626
6.200927
6.065719
5.931886
5.799317
5.667913
5.537577
5.408222
5.279767
5.152136
5.025259
4.899071
4.773514
4.648532
4.524075
4.400096
4.276551
4.153402
4.030613
3.908149
3.785981
3.664081
3.542422
3.420983
3.29974
3.178676
3.057773
2.937013
2.816383
2.695869
2.575459
2.455142
2.334908
2.214748
2.094654
1.974619
1.854635
1.734696
1.614797
1.494933
1.375098
1.255288
1.135499
1.015726
0.895966
0.776215
0.656468
0.536721
0.416971
0.297213
0.177443
0.057656
12.417856
12.716884
12.965881
13.163597
13.310076
13.40657
13.455391
13.459706
13.423319
13.350448
13.245515
13.112967
12.957125
12.782076
12.591593
12.389088
12.177587
11.959732
11.737791
11.513677
11.288986
11.065019
10.842823
10.623221
10.406842
10.194154
9.985485
9.781051
9.580971
9.38529
9.193992
9.007011
8.824245
8.645563
8.470814
8.299832
8.132441
7.96846
7.807706
7.649996
7.49515
7.342992
7.193352
7.046065
6.900973
6.757926
6.616781
6.477403
6.339662
6.203439
6.068619
5.935098
5.802774
5.671555
5.541354
5.412089
5.283686
5.156075
5.02919
4.902971
4.777363
4.652312
4.527773
4.403701
4.280054
4.156796
4.033892
3.91131
3.789021
3.666999
3.545218
3.423656
3.302292
3.181108
3.060086
2.939211
2.818467
2.697843
2.577326
2.456905
2.336569
2.216312
2.096122
1.975995
1.855921
1.735896
1.615913
1.495967
1.376053
1.256166
1.136301
1.016455
0.896622
0.7768
0.656983
0.537168
0.41735
0.297525
0.177689
0.057836
11.934837
12.216603
12.454423
12.647161
12.794717
12.897963
12.958642
12.979222
12.962728
12.912574
12.832399
12.725922
12.596812
12.448596
12.284582
12.107809
11.921023
11.72666
11.526849
11.323427
11.117953
10.911732
10.705841
10.501155
10.29837
10.098026
9.900534
9.70619
9.515198
9.327683
9.143706
8.963276
8.786361
8.612895
8.442787
8.275926
8.112188
7.951439
7.793538
7.638341
7.485704
7.335483
7.187535
7.041724
6.897913
6.755975
6.615784
6.477224
6.34018
6.204547
6.070222
5.937112
5.805125
5.674179
5.544193
5.415095
5.286815
5.159288
5.032455
4.906261
4.780652
4.655582
4.531005
4.40688
4.283169
4.159836
4.036849
3.914179
3.791796
3.669675
3.547794
3.42613
3.304664
3.183377
3.062253
2.941277
2.820433
2.699711
2.579097
2.458581
2.338154
2.217806
2.097529
1.977316
1.85716
1.737054
1.616992
1.49697
1.376981
1.257021
1.137085
1.017169
0.897268
0.777379
0.657496
0.537617
0.417735
0.297848
0.17795
0.058037
11.493602
11.760269
11.988045
12.175908
12.323667
12.431922
12.501994
12.535813
12.535796
12.50472
12.445587
12.361509
12.255605
12.130914
11.990328
11.836544
11.672037
11.499034
11.319519
11.135229
10.947666
10.758114
10.567655
10.37719
10.187456
9.999047
9.812434
9.627977
9.445948
9.266537
9.089873
8.916028
8.745029
8.57687
8.411512
8.248897
8.088946
7.931569
7.776665
7.624127
7.473843
7.325699
7.179583
7.035381
6.892981
6.752275
6.613158
6.475528
6.339288
6.204346
6.070611
5.938002
5.806437
5.675842
5.546146
5.417282
5.289189
5.161807
5.035083
4.908964
4.783404
4.658358
4.533784
4.409645
4.285904
4.16253
4.039491
3.916759
3.794308
3.672113
3.550153
3.428408
3.306857
3.185484
3.064273
2.943209
2.822278
2.701469
2.58077
2.460169
2.339659
2.219229
2.098873
1.978581
1.858348
1.738167
1.618033
1.497939
1.37788
1.257852
1.137849
1.017868
0.897903
0.777951
0.658007
0.538067
0.418127
0.298182
0.178227
0.058258
11.089412
11.342826
11.561581
11.74476
11.892119
12.004065
12.081599
12.126238
12.139924
12.124922
12.083718
12.018922
11.933186
11.829128
11.709271
11.576004
11.431544
11.277922
11.116965
10.950303
10.779368
10.605403
10.429476
10.252494
10.075216
9.898273
9.722176
9.547337
9.374078
9.202646
9.033221
8.865932
8.700858
8.538042
8.377496
8.219203
8.063131
7.909226
7.757426
7.607658
7.45984
7.313889
7.169717
7.027236
6.886355
6.746987
6.609044
6.472442
6.337099
6.202936
6.069876
5.937847
5.806779
5.676606
5.547266
5.4187
5.290852
5.16367
5.037104
4.911109
4.785642
4.660661
4.536129
4.412011
4.288274
4.164889
4.041825
3.919058
3.796562
3.674316
3.552298
3.43049
3.308872
3.187429
3.066146
2.945008
2.824003
2.703118
2.582343
2.461668
2.341083
2.22058
2.10015
1.979788
1.859484
1.739235
1.619032
1.498872
1.378748
1.258657
1.138592
1.01855
0.898526
0.778515
0.658514
0.538518
0.418523
0.298525
0.178518
0.058499
10.718298
10.960041
11.170693
11.349431
11.495986
11.610621
11.694098
11.747616
11.772741
11.771328
11.745441
11.697276
11.62909
11.543139
11.441625
11.326656
11.200216
11.064143
10.920116
10.769651
10.6141
10.454653
10.292351
10.128092
9.962643
9.796653
9.630662
9.465117
9.300382
9.136746
8.974435
8.81362
8.654429
8.496946
8.341224
8.18729
8.035147
7.884779
7.736157
7.589238
7.443971
7.3003
7.158161
7.017489
6.878216
6.740272
6.603589
6.468098
6.333731
6.200423
6.06811
5.936731
5.806225
5.676537
5.547612
5.419399
5.291849
5.164915
5.038555
4.912727
4.787392
4.662515
4.53806
4.413996
4.290294
4.166925
4.043863
3.921085
3.798568
3.676291
3.554234
3.43238
3.310712
3.189214
3.067873
2.946674
2.825606
2.704657
2.583817
2.463076
2.342425
2.221856
2.101362
1.980934
1.860567
1.740254
1.61999
1.499769
1.379585
1.259435
1.139312
1.019214
0.899134
0.77907
0.659016
0.538969
0.418924
0.298876
0.178822
0.058756
10.376912
10.608348
10.811718
10.986286
11.131771
11.248335
11.336557
11.397388
11.432095
11.442207
11.429441
11.39565
11.342759
11.272713
11.187433
11.088778
10.97852
10.858317
10.729705
10.594086
10.452727
10.306759
10.157184
10.004881
9.850612
9.695032
9.538701
9.382088
9.225587
9.069521
8.914151
8.759686
8.606291
8.454087
8.303166
8.153587
8.005388
7.858587
7.713183
7.569165
7.426507
7.285178
7.145139
7.006345
6.868748
6.732298
6.596942
6.462629
6.329304
6.196915
6.065411
5.93474
5.804854
5.675705
5.547246
5.419435
5.292229
5.165588
5.039474
4.913852
4.788686
4.663946
4.5396
4.41562
4.291979
4.168653
4.045618
3.922852
3.800334
3.678045
3.555968
3.434085
3.312382
3.190844
3.069457
2.94821
2.82709
2.706087
2.585192
2.464394
2.343686
2.223059
2.102506
1.982021
1.861596
1.741226
1.620905
1.500628
1.380389
1.260184
1.140009
1.019858
0.899728
0.779614
0.659512
0.539417
0.419326
0.299234
0.179137
0.05903
10.062412
10.284722
10.481546
10.652225
10.796476
10.914391
11.006407
11.073282
11.116047
11.135962
11.134466
11.113125
11.073584
11.017522
10.946615
10.862505
10.766769
10.660902
10.546302
10.424262
10.295962
10.162471
10.024745
9.883635
9.73989
9.594163
9.447021
9.298948
9.150358
9.001599
8.852961
8.704684
8.556961
8.409947
8.263764
8.118503
7.974232
7.830997
7.688825
7.547731
7.407714
7.268767
7.130871
6.994002
6.858133
6.723228
6.589254
6.456171
6.323941
6.192523
6.061878
5.931966
5.802746
5.674181
5.546233
5.418866
5.292044
5.165733
5.039902
4.914519
4.789555
4.664982
4.540773
4.416904
4.293351
4.170091
4.047104
3.92437
3.80187
3.679588
3.557507
3.435611
3.313887
3.192322
3.070902
2.949618
2.828457
2.70741
2.586468
2.465623
2.344865
2.224187
2.103583
1.983046
1.86257
1.742148
1.621776
1.501448
1.381159
1.260905
1.140681
1.020483
0.900306
0.780146
0.659999
0.539862
0.419729
0.299597
0.179462
0.059318
9.772371
9.986583
10.177519
10.344589
10.487519
10.606345
10.7014
10.773286
10.822847
10.851129
10.859337
10.848801
10.820929
10.777174
10.719002
10.647858
10.565148
10.472218
10.370339
10.260697
10.144389
10.022417
9.89569
9.765025
9.631151
9.494711
9.356271
9.216325
9.075298
8.933556
8.791412
8.649127
8.506921
8.364976
8.223439
8.08243
7.94204
7.802343
7.66339
7.525219
7.387853
7.251304
7.115575
6.980662
6.846552
6.713229
6.580673
6.448861
6.317765
6.187358
6.057613
5.928498
5.799984
5.672041
5.54464
5.417752
5.291347
5.1654
5.039882
4.914768
4.790033
4.665654
4.541608
4.417873
4.294429
4.171256
4.048337
3.925654
3.80319
3.68093
3.558859
3.436965
3.315233
3.193653
3.072213
2.950902
2.82971
2.708629
2.587649
2.466763
2.345963
2.225242
2.104593
1.984011
1.863489
1.743021
1.622602
1.502229
1.381894
1.261595
1.141327
1.021085
0.900866
0.780665
0.660478
0.540302
0.420132
0.299964
0.179794
0.059619
9.504709
9.711719
9.897357
10.061095
10.202667
10.322072
10.41956
10.495615
10.550927
10.586368
10.602953
10.601813
10.584157
10.551245
10.504359
10.444776
10.373748
10.292484
10.202138
10.103799
9.998479
9.887118
9.770573
9.649625
9.524977
9.397258
9.267028
9.134782
9.000952
8.865916
8.730003
8.593491
8.456622
8.319597
8.182588
8.045736
7.909156
7.772944
7.637173
7.501901
7.367174
7.233021
7.099465
6.966517
6.834184
6.702463
6.57135
6.440833
6.3109
6.181533
6.052716
5.924429
5.79665
5.669359
5.542534
5.416153
5.290194
5.164636
5.039457
4.914637
4.790155
4.665993
4.54213
4.41855
4.295235
4.172168
4.049334
3.926718
3.804305
3.682082
3.560036
3.438156
3.316429
3.194845
3.073394
2.952066
2.830853
2.709745
2.588736
2.467818
2.346983
2.226225
2.105538
1.984916
1.864353
1.743844
1.623385
1.50297
1.382595
1.262255
1.141947
1.021666
0.901408
0.78117
0.660947
0.540735
0.420532
0.300332
0.180133
0.05993
9.25763
9.458226
9.639096
9.799765
9.939981
10.059715
10.159154
10.238686
10.29888
10.340463
10.364294
10.371339
10.36264
10.339291
10.302414
10.25314
10.192583
10.121831
10.041932
9.95388
9.858612
9.757003
9.64986
9.537925
9.421873
9.302316
9.179802
9.054822
8.927812
8.799155
8.669191
8.538213
8.406477
8.274203
8.14158
8.008769
7.875906
7.743104
7.610456
7.478041
7.345919
7.214142
7.082745
6.951759
6.821203
6.691091
6.56143
6.432222
6.303467
6.175159
6.04729
5.919851
5.792829
5.666212
5.539984
5.414133
5.288641
5.163493
5.038674
4.914168
4.789959
4.666031
4.542371
4.418963
4.295793
4.172848
4.050114
3.927579
3.80523
3.683057
3.561048
3.439193
3.317481
3.195904
3.074451
2.953116
2.831889
2.710764
2.589733
2.468789
2.347925
2.227137
2.106417
1.985761
1.865163
1.744618
1.624123
1.503671
1.383259
1.262884
1.142539
1.022223
0.901931
0.781659
0.661403
0.541161
0.420928
0.3007
0.180475
0.060248
9.029583
9.224459
9.401037
9.558889
9.697777
9.817652
9.918654
10.001094
10.065443
10.112309
10.142423
10.15661
10.155773
10.140863
10.112868
10.072785
10.021612
9.960327
9.889878
9.811177
9.725087
9.632421
9.533938
9.430341
9.322275
9.21033
9.095042
8.976893
8.856317
8.733702
8.609393
8.483693
8.356869
8.229157
8.10076
7.971855
7.842594
7.713108
7.583507
7.453886
7.324322
7.194881
7.065616
6.93657
6.807778
6.679267
6.551056
6.423159
6.295587
6.168345
6.041435
5.914855
5.788603
5.662674
5.537059
5.411752
5.286743
5.162022
5.037578
4.913401
4.78948
4.665803
4.542359
4.419137
4.296127
4.173316
4.050695
3.928253
3.805981
3.683868
3.561906
3.440086
3.318399
3.196837
3.075392
2.954057
2.832825
2.711689
2.590642
2.469679
2.348793
2.227979
2.107233
1.986548
1.86592
1.745344
1.624816
1.504333
1.383888
1.26348
1.143104
1.022756
0.902433
0.782131
0.661847
0.541577
0.421318
0.301067
0.180819
0.060572
8.819219
9.00899
9.181705
9.336978
9.474584
9.594464
9.696717
9.781595
9.849487
9.900908
9.936477
9.956907
9.962977
9.955522
9.935408
9.903522
9.860754
9.807986
9.746078
9.675862
9.598137
9.513656
9.423132
9.327227
9.226556
9.121688
9.013142
8.90139
8.786862
8.669945
8.550986
8.430296
8.308151
8.184796
8.060448
7.935297
7.809508
7.683227
7.55658
7.429673
7.302602
7.175444
7.048267
6.921128
6.794073
6.667142
6.540367
6.413772
6.287378
6.1612
6.035249
5.909532
5.784055
5.65882
5.533827
5.409073
5.284557
5.160273
5.036215
4.912379
4.788757
4.665342
4.542126