# vtk DataFile Version 2.0
Results
ASCII
DATASET STRUCTURED_POINTS
DIMENSIONS 100 100 1
ORIGIN 0 0 0
SPACING 0.01 0.01 1
POINT_DATA 10000
SCALARS PRESSURE double
LOOKUP_TABLE default
-0
235.526
124.696
75.4043
51.7054
39.0433
31.5063
26.5845
23.1324
20.5803
18.6185
17.0654
15.8071
14.7684
13.8976
13.1579
12.5222
11.9704
11.487
11.0599
10.6798
10.339
10.0313
9.75174
9.49616
9.2611
9.04366
8.84139
8.65222
8.47437
8.30633
8.14677
7.99457
7.84875
7.70845
7.57293
7.44154
7.3137
7.18893
7.06677
6.94686
6.82884
6.71243
6.59736
6.48341
6.37037
6.25807
6.14635
6.03508
5.92415
5.81344
5.70288
5.59238
5.48188
5.37132
5.26066
5.14985
5.03886
4.92766
4.81624
4.70456
4.59262
4.48041
4.36791
4.25513
4.14206
4.0287
3.91506
3.80112
3.68691
3.57241
3.45765
3.34262
3.22734
3.11181
2.99603
2.88003
2.7638
2.64736
2.53072
2.41388
2.29685
2.17966
2.06229
1.94477
1.82711
1.70931
1.59139
1.47335
1.35522
1.237
1.11871
1.00036
0.881978
0.763582
0.645203
0.526883
0.40869
0.290736
0.173243
235.526
124.696
75.4043
51.7054
39.0433
31.5063
26.5845
23.1324
20.5803
18.6185
17.0654
15.8071
14.7684
13.8976
13.1579
12.5222
11.9704
11.487
11.0599
10.6798
10.339
10.0313
9.75174
9.49616
9.2611
9.04366
8.84139
8.65222
8.47437
8.30633
8.14677
7.99457
7.84875
7.70845
7.57293
7.44154
7.3137
7.18893
7.06677
6.94686
6.82884
6.71243
6.59736
6.48341
6.37037
6.25807
6.14635
6.03508
5.92415
5.81344
5.70288
5.59238
5.48188
5.37132
5.26066
5.14985
5.03886
4.92766
4.81624
4.70456
4.59262
4.48041
4.36791
4.25513
4.14206
4.0287
3.91506
3.80112
3.68691
3.57241
3.45765
3.34262
3.22734
3.11181
2.99603
2.88003
2.7638
2.64736
2.53072
2.41388
2.29685
2.17966
2.06229
1.94477
1.82711
1.70931
1.59139
1.47335
1.35522
1.237
1.11871
1.00036
0.881978
0.763582
0.645203
0.526883
0.40869
0.290736
0.173243
0.056681
146.356
108.821
78.0613
57.7293
44.6913
36.1261
30.2629
26.074
22.9643
20.58
18.7023
17.1903
15.95
14.9166
14.0437
13.2978
12.6536
12.092
11.5983
11.1607
10.7702
10.4191
10.1015
9.81241
9.54764
9.30377
9.0779
8.86759
8.67073
8.48555
8.31052
8.1443
7.98575
7.83388
7.68782
7.54682
7.41021
7.2774
7.1479
7.02126
6.89707
6.775
6.65473
6.536
6.41858
6.30224
6.18682
6.07214
5.95807
5.84448
5.73127
5.61833
5.50559
5.39297
5.28041
5.16786
5.05527
4.94261
4.82983
4.71692
4.60385
4.4906
4.37715
4.2635
4.14963
4.03555
3.92123
3.80669
3.69192
3.57693
3.46171
3.34627
3.23061
3.11473
2.99865
2.88237
2.7659
2.64924
2.5324
2.41538
2.2982
2.18087
2.06339
1.94577
1.82802
1.71015
1.59218
1.4741
1.35594
1.23771
1.11942
1.00109
0.882731
0.764378
0.646058
0.527814
0.409706
0.291823
0.174291
0.057251
97.5453
86.1722
70.2902
56.459
45.8666
38.044
32.267
27.9362
24.6231
22.0351
19.9734
18.3018
16.9249
15.775
14.8027
13.9716
13.2542
12.6292
12.0804
11.5947
11.1619
10.7735
10.4228
10.1043
9.81327
9.54587
9.29886
9.06949
8.85542
8.65464
8.46545
8.28635
8.11608
7.9535
7.79766
7.64771
7.5029
7.36258
7.22618
7.0932
6.96318
6.83575
6.71056
6.58729
6.46569
6.34551
6.22654
6.1086
5.99151
5.87515
5.75938
5.64409
5.52917
5.41456
5.30016
5.18591
5.07177
4.95767
4.84357
4.72945
4.61526
4.50098
4.38659
4.27208
4.15742
4.04261
3.92764
3.81249
3.69717
3.58167
3.46599
3.35013
3.23409
3.11787
3.00148
2.88491
2.76818
2.65129
2.53424
2.41705
2.29971
2.18223
2.06462
1.9469
1.82905
1.71111
1.59307
1.47494
1.35674
1.23848
1.12017
1.00183
0.883482
0.76514
0.646837
0.528608
0.410498
0.29256
0.174847
0.057376
70.5024
68.0318
60.4683
51.95
44.272
37.9164
32.825
28.7806
25.5568
22.9638
20.8546
19.1184
17.6727
16.4556
15.4205
14.5319
13.7623
13.0904
12.4994
11.9759
11.509
11.0901
10.712
10.3687
10.0553
9.76759
9.50219
9.25609
9.0268
8.81214
8.61028
8.41959
8.2387
8.06639
7.90162
7.74346
7.5911
7.44383
7.30104
7.16216
7.02672
6.89428
6.76446
6.63692
6.51138
6.38756
6.26523
6.14419
6.02424
5.90523
5.78701
5.66946
5.55246
5.43592
5.31975
5.20387
5.08821
4.97272
4.85734
4.74203
4.62675
4.51147
4.39617
4.28081
4.16537
4.04984
3.93421
3.81847
3.7026
3.58659
3.47045
3.35417
3.23775
3.12118
3.00447
2.88762
2.77063
2.6535
2.53625
2.41886
2.30135
2.18372
2.06598
1.94813
1.83019
1.71216
1.59404
1.47585
1.3576
1.2393
1.12096
1.00259
0.884222
0.765864
0.647542
0.529284
0.411117
0.293071
0.175163
0.057375
54.5941
54.9842
51.6011
46.6007
41.3551
36.5245
32.3359
28.8044
25.8596
23.4088
21.3627
19.6447
18.192
16.9543
15.8919
14.973
14.1726
13.4706
12.8509
12.3003
11.8083
11.3661
10.9664
10.6032
10.2715
9.96704
9.68619
9.4259
9.18354
8.95687
8.74392
8.54303
8.35273
8.17175
7.99896
7.8334
7.67421
7.52062
7.37198
7.2277
7.08725
6.95018
6.81607
6.68457
6.55535
6.42812
6.30264
6.17868
6.05602
5.93451
5.81398
5.69428
5.5753
5.45692
5.33905
5.2216
5.10449
4.98765
4.87104
4.75458
4.63825
4.522
4.40579
4.2896
4.17341
4.05718
3.9409
3.82457
3.70815
3.59165
3.47505
3.35835
3.24155
3.12463
3.0076
2.89046
2.77321
2.65585
2.53837
2.42079
2.30311
2.18532
2.06744
1.94947
1.83142
1.71329
1.59509
1.47683
1.35851
1.24015
1.12177
1.00336
0.88495
0.766552
0.648185
0.529867
0.411616
0.293445
0.175357
0.057332
44.517
45.7099
44.3512
41.4965
38.0233
34.4904
31.19
28.2414
25.6684
23.449
21.5427
19.9057
18.4962
17.2779
16.2197
15.2957
14.4846
13.7686
13.1331
12.5662
12.0578
11.5994
11.1842
10.8062
10.4605
10.1429
9.84965
9.57778
9.32461
9.08785
8.86552
8.65589
8.45745
8.2689
8.08908
7.91698
7.7517
7.59246
7.43857
7.2894
7.1444
7.00311
6.86508
6.72993
6.59732
6.46694
6.33854
6.21185
6.08667
5.96282
5.84011
5.71839
5.59753
5.47742
5.35793
5.23898
5.12049
5.00237
4.88457
4.76702
4.64967
4.53247
4.4154
4.29841
4.18147
4.06456
3.94766
3.83074
3.71379
3.5968
3.47975
3.36264
3.24546
3.1282
3.01085
2.89342
2.7759
2.6583
2.54061
2.42283
2.30496
2.18702
2.06899
1.95089
1.83272
1.71449
1.5962
1.47785
1.35946
1.24104
1.12259
1.00413
0.885665
0.76721
0.648778
0.530382
0.412033
0.293737
0.175489
0.057274
37.6709
38.9871
38.5975
37.0107
34.7511
32.224
29.6922
27.3027
25.1238
23.1759
21.4537
19.939
18.6093
17.4413
16.4132
15.5055
14.7014
13.986
13.3469
12.7737
12.2571
11.7897
11.3648
10.977
10.6215
10.2943
9.99174
9.71095
9.44926
9.20441
8.97441
8.75754
8.55229
8.35733
8.17149
7.99373
7.82316
7.65896
7.50043
7.34691
7.19787
7.05278
6.91121
6.77275
6.63705
6.5038
6.3727
6.24352
6.11601
5.98998
5.86524
5.74164
5.61903
5.49728
5.37628
5.25592
5.13611
5.01678
4.89785
4.77925
4.66093
4.54283
4.42493
4.30717
4.18951
4.07194
3.95443
3.83695
3.71948
3.60201
3.48452
3.367
3.24945
3.13184
3.01418
2.89647
2.77869
2.66084
2.54293
2.42495
2.3069
2.18879
2.07062
1.95238
1.83409
1.71575
1.59735
1.47892
1.36045
1.24195
1.12343
1.0049
0.886369
0.767844
0.649335
0.530852
0.412399
0.293979
0.175587
0.057212
32.7391
33.9702
34.041
33.1977
31.7465
29.9622
28.052
26.1535
24.3481
22.6773
21.157
19.7874
18.5606
17.4647
16.4863
15.612
14.8293
14.127
13.495
12.9244
12.4074
11.9373
11.5084
11.1155
10.7543
10.4209
10.1121
9.82502
9.55708
9.30611
9.07017
8.84758
8.63684
8.43663
8.2458
8.06331
7.88825
7.7198
7.55726
7.39997
7.24737
7.09893
6.95422
6.81281
6.67434
6.53849
6.40497
6.2735
6.14386
6.01584
5.88924
5.7639
5.63966
5.5164
5.39398
5.2723
5.15127
5.03079
4.91079
4.7912
4.67196
4.55301
4.43431
4.31581
4.19747
4.07927
3.96117
3.84314
3.72517
3.60724
3.48932
3.37141
3.25348
3.13554
3.01757
2.89957
2.78153
2.66345
2.54532
2.42714
2.30891
2.19063
2.07231
1.95393
1.83551
1.71705
1.59855
1.48002
1.36146
1.24288
1.12428
1.00568
0.887067
0.768462
0.649868
0.53129
0.412732
0.294193
0.175669
0.057152
29.0179
30.1137
30.3984
29.9928
29.075
27.8264
26.4001
24.9112
23.4378
22.0283
20.7095
19.493
18.3812
17.3707
16.4552
15.6267
14.877
14.1979
13.5817
13.0214
12.5107
12.0438
11.6159
11.2223
10.8591
10.523
10.2108
9.91991
9.64793
9.39277
9.15259
8.92577
8.71085
8.50657
8.31177
8.12545
7.94671
7.77474
7.60884
7.44834
7.29269
7.14137
6.99392
6.84993
6.70902
6.57087
6.43517
6.30166
6.1701
6.04027
5.91198
5.78505
5.65932
5.53466
5.41094
5.28804
5.16586
5.04432
4.92332
4.8028
4.68269
4.56294
4.44348
4.32428
4.2053
4.08649
3.96783
3.84928
3.73083
3.61244
3.49411
3.37581
3.25754
3.13927
3.021
2.90272
2.78442
2.6661
2.54775
2.42938
2.31097
2.19252
2.07404
1.95552
1.83698
1.7184
1.59979
1.48116
1.3625
1.24383
1.12515
1.00645
0.88776
0.769069
0.650384
0.531709
0.413045
0.294392
0.175745
0.057097
26.1069
27.0684
27.4461
27.2999
26.7344
25.8681
24.8109
23.6534
22.4635
21.2887
20.1596
19.0938
18.1003
17.1818
16.337
15.5627
14.854
14.2057
13.6124
13.0689
12.5701
12.1115
11.689
11.2986
10.937
10.6011
10.2882
9.9959
9.72196
9.46445
9.22166
8.99205
8.77424
8.56701
8.36926
8.18002
7.9984
7.82363
7.655
7.49187
7.33369
7.17994
7.03017
6.88396
6.74094
6.60078
6.46318
6.32787
6.19461
6.06317
5.93336
5.80499
5.67792
5.55199
5.42708
5.30306
5.17983
5.0573
4.93538
4.81399
4.69308
4.57257
4.45241
4.33255
4.21295
4.09357
3.97437
3.85533
3.73641
3.6176
3.49887
3.3802
3.26158
3.143
3.02444
2.90588
2.78734
2.66879
2.55022
2.43165
2.31305
2.19444
2.07581
1.95715
1.83847
1.71977
1.60105
1.48231
1.36356
1.24479
1.12601
1.00723
0.888451
0.769669
0.65089
0.532117
0.413349
0.294585
0.175821
0.057052
23.7642
24.607
25.0177
25.0262
24.6947
24.1008
23.3221
22.4278
21.4741
20.5035
19.5463
18.6225
17.7445
16.919
16.1485
15.433
14.7707
14.1586
13.5935
13.0716
12.5894
12.1432
11.7299
11.3461
10.9891
10.6562
10.3451
10.0535
9.77954
9.52141
9.27755
9.04652
8.82705
8.61796
8.41825
8.22695
8.04325
7.86637
7.69565
7.53046
7.37026
7.21454
7.06285
6.91479
6.77
6.62814
6.48891
6.35204
6.21729
6.08444
5.95329
5.82365
5.69537
5.56831
5.44231
5.31728
5.1931
5.06966
4.9469
4.82472
4.70306
4.58184
4.46103
4.34055
4.22038
4.10046
3.98076
3.86125
3.74189
3.62267
3.50356
3.38454
3.2656
3.14671
3.02786
2.90904
2.79025
2.67148
2.55271
2.43394
2.31516
2.19639
2.0776
1.9588
1.83999
1.72116
1.60233
1.48348
1.36462
1.24576
1.12689
1.00802
0.88914
0.770265
0.651391
0.532519
0.413648
0.294777
0.175901
0.057018
21.8357
22.5775
22.9916
23.0924
22.9176
22.5181
21.9489
21.2617
20.5017
19.705
18.8995
18.1054
17.3363
16.6012
15.9051
15.2502
14.637
14.0646
13.5312
13.0347
12.5725
12.1422
11.7411
11.3669
11.0171
10.6896
10.3824
10.0935
9.82128
9.56412
9.32061
9.08945
8.86945
8.65956
8.45881
8.2663
8.08126
7.90297
7.73076
7.56406
7.40234
7.2451
7.0919
6.94237
6.79613
6.65286
6.51227
6.37409
6.23808
6.10401
5.9717
5.84095
5.71162
5.58354
5.4566
5.33066
5.20561
5.08137
4.95783
4.83493
4.71258
4.59073
4.4693
4.34826
4.22755
4.10713
3.98696
3.86701
3.74724
3.62764
3.50817
3.38881
3.26955
3.15037
3.03125
2.91218
2.79316
2.67416
2.55519
2.43623
2.31728
2.19834
2.0794
1.96046
1.84152
1.72257
1.60362
1.48466
1.3657
1.24673
1.12777
1.0088
0.889829
0.77086
0.65189
0.53292
0.413948
0.294973
0.175991
0.056997
20.2186
20.8759
21.2789
21.4342
21.3651
21.1052
20.6935
20.1686
19.5658
18.9152
18.2414
17.5631
16.8942
16.2445
15.6203
15.0257
14.4626
13.9315
13.4321
12.9633
12.5238
12.1119
11.7256
11.3632
11.0229
10.7028
10.4013
10.1169
9.84794
9.59317
9.35132
9.1212
8.90176
8.69203
8.49111
8.29819
8.11254
7.93347
7.76037
7.5927
7.42993
7.2716
7.1173
6.96665
6.81929
6.67491
6.53323
6.39397
6.25691
6.12183
5.98854
5.85685
5.7266
5.59765
5.46987
5.34313
5.21733
5.09236
4.96814
4.84458
4.72162
4.59918
4.4772
4.35564
4.23443
4.11355
3.99294
3.87258
3.75243
3.63247
3.51266
3.39298
3.27343
3.15397
3.03459
2.91528
2.79603
2.67682
2.55765
2.43851
2.31939
2.20029
2.0812
1.96212
1.84305
1.72398
1.60491
1.48584
1.36678
1.24771
1.12865
1.00958
0.890519
0.771454
0.652389
0.533323
0.414252
0.295176
0.17609
0.056992
18.842
19.4284
19.8138
20.0006
20.0032
19.8443
19.5514
19.1533
18.6776
18.1488
17.5878
17.0114
16.4329
15.8621
15.3061
14.7697
14.256
13.7667
13.3023
12.8628
12.4476
12.0558
11.6862
11.3375
11.0083
10.6974
10.4033
10.1247
9.86043
9.60933
9.37028
9.14228
8.92437
8.71568
8.51541
8.32282
8.13722
7.958
7.78457
7.61642
7.45307
7.29409
7.13906
6.98763
6.83947
6.69427
6.55175
6.41166
6.27377
6.13787
6.00377
5.8713
5.74029
5.6106
5.4821
5.35468
5.22821
5.10261
4.97778
4.85364
4.73013
4.60716
4.48469
4.36265
4.241
4.11969
3.99869
3.87794
3.75744
3.63714
3.51701
3.39704
3.27721
3.15748
3.03786
2.91832
2.79886
2.67945
2.56009
2.44077
2.32149
2.20223
2.08299
1.96378
1.84458
1.72538
1.6062
1.48703
1.36786
1.24869
1.12953
1.01037
0.891208
0.77205
0.652891
0.533729
0.414562
0.295388
0.176203
0.057004
17.6548
18.1819
18.5472
18.7512
18.8027
18.7172
18.5144
18.2158
17.8426
17.4146
16.9495
16.4618
15.9638
15.4649
14.9722
14.4911
14.0252
13.5769
13.1476
12.738
12.3481
11.9776
11.6259
11.2922
10.9756
10.6751
10.3896
10.1182
9.85977
9.61342
9.3782
9.15326
8.93775
8.73092
8.53204
8.34045
8.15553
7.97672
7.80349
7.63535
7.47186
7.31261
7.15722
7.00535
6.85669
6.71094
6.56784
6.42714
6.28864
6.15211
6.01738
5.88428
5.75265
5.62235
5.49326
5.36526
5.23823
5.11208
4.98673
4.86209
4.73808
4.61465
4.49174
4.36928
4.24722
4.12553
4.00416
3.88307
3.76224
3.64163
3.52121
3.40097
3.28087
3.1609
3.04105
2.92129
2.80162
2.68202
2.56248
2.44299
2.32355
2.20415
2.08477
1.96542
1.84609
1.72678
1.60749
1.4882
1.36893
1.24966
1.13041
1.01115
0.891897
0.772646
0.653394
0.53414
0.41488
0.295611
0.17633
0.057034
16.62
17.0971
17.4421
17.6543
17.7393
17.7075
17.5734
17.3527
17.0622
16.7177
16.3336
15.9227
15.4957
15.0615
14.6269
14.1973
13.7768
13.3681
12.9733
12.5934
12.2291
11.8805
11.5476
11.2299
10.9268
10.6378
10.362
10.0987
9.84705
9.60637
9.37586
9.15479
8.94246
8.73819
8.54137
8.35141
8.16774
7.98987
7.81731
7.64963
7.4864
7.32726
7.17186
7.01987
6.87099
6.72496
6.58152
6.44045
6.30152
6.16455
6.02936
5.89579
5.76368
5.63291
5.50334
5.37486
5.24736
5.12076
4.99496
4.86989
4.74547
4.62164
4.49833
4.37549
4.25308
4.13105
4.00935
3.88795
3.76682
3.64593
3.52524
3.40474
3.2844
3.16421
3.04414
2.92418
2.80432
2.68453
2.56482
2.44518
2.32558
2.20603
2.08652
1.96704
1.84759
1.72817
1.60876
1.48937
1.37
1.25063
1.13128
1.01193
0.892585
0.773243
0.653901
0.534556
0.415205
0.295846
0.176473
0.057085
15.7095
16.1443
16.4698
16.6847
16.7924
16.8003
16.7187
16.5596
16.3359
16.0602
15.7445
15.3996
15.0349
14.6583
14.2764
13.8944
13.5165
13.1455
12.7839
12.4332
12.0943
11.7679
11.4541
11.1529
10.864
10.5872
10.3218
10.0674
9.8234
9.58916
9.36409
9.1476
8.9391
8.73803
8.54386
8.35606
8.17416
7.99771
7.82627
7.65944
7.49686
7.33819
7.18309
7.03127
6.88245
6.73639
6.59284
6.4516
6.31245
6.17521
6.03973
5.90583
5.77339
5.64225
5.51232
5.38347
5.25561
5.12864
5.00247
4.87704
4.75227
4.62809
4.50445
4.38129
4.25856
4.13623
4.01424
3.89256
3.77116
3.65001
3.52909
3.40835
3.2878
3.16739
3.04712
2.92697
2.80693
2.68698
2.56711
2.44731
2.32756
2.20788
2.08824
1.96864
1.84907
1.72953
1.61002
1.49053
1.37105
1.25159
1.13214
1.0127
0.89327
0.77384
0.65441
0.534978
0.41554
0.296093
0.176633
0.057155
14.902
15.3009
15.6082
15.8223
15.9454
15.9826
15.9415
15.8311
15.6615
15.4428
15.1847
14.8964
14.586
14.2605
13.9261
13.5876
13.2491
12.9136
12.5837
12.2611
11.9472
11.6426
11.348
11.0635
10.7893
10.5251
10.2707
10.0258
9.78997
9.56277
9.34374
9.13241
8.92831
8.73097
8.53996
8.35482
8.17514
8.00052
7.8306
7.66501
7.50343
7.34553
7.19103
7.03966
6.89116
6.7453
6.60187
6.46065
6.32146
6.18413
6.0485
5.91443
5.78177
5.65041
5.52022
5.3911
5.26296
5.13571
5.00926
4.88353
4.75847
4.63401
4.51009
4.38665
4.26366
4.14106
4.01882
3.8969
3.77526
3.65388
3.53273
3.41179
3.29103
3.17043
3.04998
2.92966
2.80945
2.68934
2.56932
2.44937
2.3295
2.20968
2.08991
1.97019
1.85052
1.73087
1.61125
1.49166
1.37209
1.25254
1.133
1.01347
0.893952
0.774437
0.654922
0.535406
0.415884
0.296353
0.176809
0.057248
14.181
14.5491
14.8396
15.0509
15.1843
15.2433
15.2336
15.1619
15.0363
14.8646
14.6551
14.4152
14.152
13.8717
13.5798
13.2808
12.9786
12.6762
12.3762
12.0805
11.7905
11.5074
11.2317
10.964
10.7044
10.4532
10.2101
9.97512
9.74791
9.5282
9.31568
9.10999
8.91075
8.7176
8.53018
8.34811
8.17105
7.99866
7.8306
7.66658
7.5063
7.34947
7.19585
7.04518
6.89723
6.7518
6.60867
6.46766
6.32861
6.19135
6.05572
5.92161
5.78886
5.65738
5.52704
5.39776
5.26943
5.14197
5.01531
4.88937
4.76408
4.63939
4.51524
4.39157
4.26835
4.14553
4.02308
3.90094
3.7791
3.65752
3.53618
3.41505
3.29411
3.17334
3.05272
2.93223
2.81187
2.69161
2.57145
2.45137
2.33137
2.21143
2.09155
1.97172
1.85193
1.73218
1.61246
1.49278
1.37312
1.25347
1.13385
1.01423
0.89463
0.775032
0.655437
0.53584
0.416238
0.296627
0.177003
0.057362
13.5332
13.8749
14.1501
14.3574
14.4975
14.5728
14.5874
14.5468
14.457
14.3244
14.1558
13.9574
13.7352
13.4946
13.2406
12.9772
12.7082
12.4364
12.1644
11.8941
11.6272
11.3646
11.1074
10.8562
10.6113
10.3731
10.1415
9.91663
9.69834
9.48647
9.2808
9.08111
8.8871
8.69851
8.51504
8.3364
8.16229
7.99244
7.82657
7.66441
7.50571
7.35022
7.19772
7.04798
6.90079
6.75598
6.61335
6.47273
6.33397
6.19692
6.06144
5.92741
5.7947
5.6632
5.53282
5.40346
5.27502
5.14744
5.02064
4.89454
4.76909
4.64423
4.5199
4.39606
4.27265
4.14965
4.02701
3.90469
3.78267
3.66092
3.53941
3.41811
3.29701
3.17608
3.05531
2.93469
2.81418
2.69379
2.5735
2.4533
2.33317
2.21312
2.09313
1.97319
1.8533
1.73346
1.61365
1.49387
1.37412
1.25439
1.13468
1.01499
0.895302
0.775625
0.655952
0.536278
0.4166
0.296914
0.177215
0.057498
12.9484
13.2672
13.5286
13.7313
13.8754
13.9629
13.9966
13.9809
13.9204
13.8204
13.6862
13.5233
13.3366
13.131
12.9106
12.6794
12.4405
12.1969
11.9509
11.7045
11.4593
11.2165
10.9772
10.7421
10.5116
10.2863
10.0662
9.85156
9.64235
9.43852
9.23996
9.04653
8.85804
8.6743
8.49507
8.32015
8.14928
7.98226
7.81883
7.65879
7.50191
7.34798
7.19682
7.04821
6.90199
6.75798
6.61601
6.47594
6.33763
6.20093
6.06572
5.93189
5.79932
5.66791
5.53758
5.40822
5.27977
5.15214
5.02526
4.89907
4.77351
4.64853
4.52407
4.4001
4.27655
4.1534
4.03061
3.90815
3.78598
3.66408
3.54242
3.42098
3.29974
3.17868
3.05777
2.93701
2.81638
2.69587
2.57546
2.45514
2.33491
2.21475
2.09465
1.97462
1.85464
1.7347
1.6148
1.49493
1.3751
1.25529
1.1355
1.01573
0.895966
0.776215
0.656468
0.536721
0.416971
0.297213
0.177443
0.057656
12.4179
12.7169
12.9659
13.1636
13.3101
13.4066
13.4554
13.4597
13.4233
13.3504
13.2455
13.113
12.9571
12.7821
12.5916
12.3891
12.1776
11.9597
11.7378
11.5137
11.289
11.065
10.8428
10.6232
10.4068
10.1942
9.98549
9.78105
9.58097
9.38529
9.19399
9.00701
8.82424
8.64556
8.47081
8.29983
8.13244
7.96846
7.80771
7.65
7.49515
7.34299
7.19335
7.04606
6.90097
6.75793
6.61678
6.4774
6.33966
6.20344
6.06862
5.9351
5.80277
5.67155
5.54135
5.41209
5.28369
5.15608
5.02919
4.90297
4.77736
4.65231
4.52777
4.4037
4.28005
4.1568
4.03389
3.91131
3.78902
3.667
3.54522
3.42366
3.30229
3.18111
3.06009
2.93921
2.81847
2.69784
2.57733
2.4569
2.33657
2.21631
2.09612
1.97599
1.85592
1.7359
1.61591
1.49597
1.37605
1.25617
1.1363
1.01646
0.896622
0.7768
0.656983
0.537168
0.41735
0.297525
0.177689
0.057836
11.9348
12.2166
12.4544
12.6472
12.7947
12.898
12.9586
12.9792
12.9627
12.9126
12.8324
12.7259
12.5968
12.4486
12.2846
12.1078
11.921
11.7267
11.5268
11.3234
11.118
10.9117
10.7058
10.5012
10.2984
10.098
9.90053
9.70619
9.5152
9.32768
9.14371
8.96328
8.78636
8.61289
8.44279
8.27593
8.11219
7.95144
7.79354
7.63834
7.4857
7.33548
7.18753
7.04172
6.89791
6.75598
6.61578
6.47722
6.34018
6.20455
6.07022
5.93711
5.80513
5.67418
5.54419
5.41509
5.28681
5.15929
5.03245
4.90626
4.78065
4.65558
4.53101
4.40688
4.28317
4.15984
4.03685
3.91418
3.7918
3.66967
3.54779
3.42613
3.30466
3.18338
3.06225
2.94128
2.82043
2.69971
2.5791
2.45858
2.33815
2.21781
2.09753
1.97732
1.85716
1.73705
1.61699
1.49697
1.37698
1.25702
1.13708
1.01717
0.897268
0.777379
0.657496
0.537617
0.417735
0.297848
0.17795
0.058037
11.4936
11.7603
11.988
12.1759
12.3237
12.4319
12.502
12.5358
12.5358
12.5047
12.4456
12.3615
12.2556
12.1309
11.9903
11.8365
11.672
11.499
11.3195
11.1352
10.9477
10.7581
10.5677
10.3772
10.1875
9.99905
9.81243
9.62798
9.44595
9.26654
9.08987
8.91603
8.74503
8.57687
8.41151
8.2489
8.08895
7.93157
7.77667
7.62413
7.47384
7.3257
7.17958
7.03538
6.89298
6.75228
6.61316
6.47553
6.33929
6.20435
6.07061
5.938
5.80644
5.67584
5.54615
5.41728
5.28919
5.16181
5.03508
4.90896
4.7834
4.65836
4.53378
4.40965
4.2859
4.16253
4.03949
3.91676
3.79431
3.67211
3.55015
3.42841
3.30686
3.18548
3.06427
2.94321
2.82228
2.70147
2.58077
2.46017
2.33966
2.21923
2.09887
1.97858
1.85835
1.73817
1.61803
1.49794
1.37788
1.25785
1.13785
1.01787
0.897903
0.777951
0.658007
0.538067
0.418127
0.298182
0.178227
0.058258
11.0894
11.3428
11.5616
11.7448
11.8921
12.0041
12.0816
12.1262
12.1399
12.1249
12.0837
12.0189
11.9332
11.8291
11.7093
11.576
11.4315
11.2779
11.117
10.9503
10.7794
10.6054
10.4295
10.2525
10.0752
9.89827
9.72218
9.54734
9.37408
9.20265
9.03322
8.86593
8.70086
8.53804
8.3775
8.2192
8.06313
7.90923
7.75743
7.60766
7.45984
7.31389
7.16972
7.02724
6.88636
6.74699
6.60904
6.47244
6.3371
6.20294
6.06988
5.93785
5.80678
5.67661
5.54727
5.4187
5.29085
5.16367
5.0371
4.91111
4.78564
4.66066
4.53613
4.41201
4.28827
4.16489
4.04183
3.91906
3.79656
3.67432
3.5523
3.43049
3.30887
3.18743
3.06615
2.94501
2.824
2.70312
2.58234
2.46167
2.34108
2.22058
2.10015
1.97979
1.85948
1.73924
1.61903
1.49887
1.37875
1.25866
1.13859
1.01855
0.898526
0.778515
0.658514
0.538518
0.418523
0.298525
0.178518
0.058499
10.7183
10.96
11.1707
11.3494
11.496
11.6106
11.6941
11.7476
11.7727
11.7713
11.7454
11.6973
11.6291
11.5431
11.4416
11.3267
11.2002
11.0641
10.9201
10.7697
10.6141
10.4547
10.2924
10.1281
9.96264
9.79665
9.63066
9.46512
9.30038
9.13675
8.97443
8.81362
8.65443
8.49695
8.34122
8.18729
8.03515
7.88478
7.73616
7.58924
7.44397
7.3003
7.15816
7.01749
6.87822
6.74027
6.60359
6.4681
6.33373
6.20042
6.06811
5.93673
5.80623
5.67654
5.54761
5.4194
5.29185
5.16491
5.03855
4.91273
4.78739
4.66251
4.53806
4.414
4.29029
4.16692
4.04386
3.92109
3.79857
3.67629
3.55423
3.43238
3.31071
3.18921
3.06787
2.94667
2.82561
2.70466
2.58382
2.46308
2.34242
2.22186
2.10136
1.98093
1.86057
1.74025
1.61999
1.49977
1.37959
1.25944
1.13931
1.01921
0.899134
0.77907
0.659016
0.538969
0.418924
0.298876
0.178822
0.058756
10.3769
10.6083
10.8117
10.9863
11.1318
11.2483
11.3366
11.3974
11.4321
11.4422
11.4294
11.3956
11.3428
11.2727
11.1874
11.0888
10.9785
10.8583
10.7297
10.5941
10.4527
10.3068
10.1572
10.0049
9.85061
9.69503
9.5387
9.38209
9.22559
9.06952
8.91415
8.75969
8.60629
8.45409
8.30317
8.15359
8.00539
7.85859
7.71318
7.56916
7.42651
7.28518
7.14514
7.00634
6.86875
6.7323
6.59694
6.46263
6.3293
6.19691
6.06541
5.93474
5.80485
5.6757
5.54725
5.41944
5.29223
5.16559
5.03947
4.91385
4.78869
4.66395
4.5396
4.41562
4.29198
4.16865
4.04562
3.92285
3.80033
3.67805
3.55597
3.43409
3.31238
3.19084
3.06946
2.94821
2.82709
2.70609
2.58519
2.46439
2.34369
2.22306
2.10251
1.98202
1.8616
1.74123
1.62091
1.50063
1.38039
1.26018
1.14001
1.01986
0.899728
0.779614
0.659512
0.539417
0.419326
0.299234
0.179137
0.05903
10.0624
10.2847
10.4815
10.6522
10.7965
10.9144
11.0064
11.0733
11.116
11.136
11.1345
11.1131
11.0736
11.0175
10.9466
10.8625
10.7668
10.6609
10.5463
10.4243
10.296
10.1625
10.0247
9.88363
9.73989
9.59416
9.44702
9.29895
9.15036
9.0016
8.85296
8.70468
8.55696
8.40995
8.26376
8.1185
7.97423
7.831
7.68882
7.54773
7.40771
7.26877
7.13087
6.994
6.85813
6.72323
6.58925
6.45617
6.32394
6.19252
6.06188
5.93197
5.80275
5.67418
5.54623
5.41887
5.29204
5.16573
5.0399
4.91452
4.78956
4.66498
4.54077
4.4169
4.29335
4.17009
4.0471
3.92437
3.80187
3.67959
3.55751
3.43561
3.31389
3.19232
3.0709
2.94962
2.82846
2.70741
2.58647
2.46562
2.34486
2.22419
2.10358
1.98305
1.86257
1.74215
1.62178
1.50145
1.38116
1.2609
1.14068
1.02048
0.900306
0.780146
0.659999
0.539862
0.419729
0.299597
0.179462
0.059318
9.77237
9.98658
10.1775
10.3446
10.4875
10.6063
10.7014
10.7733
10.8228
10.8511
10.8593
10.8488
10.8209
10.7772
10.719
10.6479
10.5651
10.4722
10.3703
10.2607
10.1444
10.0224
9.89569
9.76502
9.63115
9.49471
9.35627
9.21632
9.0753
8.93356
8.79141
8.64913
8.50692
8.36498
8.22344
8.08243
7.94204
7.80234
7.66339
7.52522
7.38785
7.2513
7.11557
6.98066
6.84655
6.71323
6.58067
6.44886
6.31776
6.18736
6.05761
5.9285
5.79998
5.67204
5.54464
5.41775
5.29135
5.1654
5.03988
4.91477
4.79003
4.66565
4.54161
4.41787
4.29443
4.17126
4.04834
3.92565
3.80319
3.68093
3.55886
3.43696
3.31523
3.19365
3.07221
2.9509
2.82971
2.70863
2.58765
2.46676
2.34596
2.22524
2.10459
1.98401
1.86349
1.74302
1.6226
1.50223
1.38189
1.2616
1.14133
1.02109
0.900866
0.780665
0.660478
0.540302
0.420132
0.299964
0.179794
0.059619
9.50471
9.71172
9.89736
10.0611
10.2027
10.3221
10.4196
10.4956
10.5509
10.5864
10.603
10.6018
10.5842
10.5512
10.5044
10.4448
10.3737
10.2925
10.2021
10.1038
9.99848
9.88712
9.77057
9.64963
9.52498
9.39726
9.26703
9.13478
9.00095
8.86592
8.73
8.59349
8.45662
8.3196
8.18259
8.04574
7.90916
7.77294
7.63717
7.5019
7.36717
7.23302
7.09947
6.96652
6.83418
6.70246
6.57135
6.44083
6.3109
6.18153
6.05272
5.92443
5.79665
5.66936
5.54253
5.41615
5.29019
5.16464
5.03946
4.91464
4.79016
4.66599
4.54213
4.41855
4.29523
4.17217
4.04933
3.92672
3.8043
3.68208
3.56004
3.43816
3.31643
3.19484
3.07339
2.95207
2.83085
2.70974
2.58874
2.46782
2.34698
2.22622
2.10554
1.98492
1.86435
1.74384
1.62339
1.50297
1.3826
1.26225
1.14195
1.02167
0.901408
0.78117
0.660947
0.540735
0.420532
0.300332
0.180133
0.05993
9.25763
9.45823
9.6391
9.79977
9.93998
10.0597
10.1592
10.2387
10.2989
10.3405
10.3643
10.3713
10.3626
10.3393
10.3024
10.2531
10.1926
10.1218
10.0419
9.95388
9.85861
9.757
9.64986
9.53792
9.42187
9.30232
9.1798
9.05482
8.92781
8.79916
8.66919
8.53821
8.40648
8.2742
8.14158
8.00877
7.87591
7.7431
7.61046
7.47804
7.34592
7.21414
7.08275
6.95176
6.8212
6.69109
6.56143
6.43222
6.30347
6.17516
6.04729
5.91985
5.79283
5.66621
5.53998
5.41413
5.28864
5.16349
5.03867
4.91417
4.78996
4.66603
4.54237
4.41896
4.29579
4.17285
4.05011
3.92758
3.80523
3.68306
3.56105
3.43919
3.31748
3.1959
3.07445
2.95312
2.83189
2.71076
2.58973
2.46879
2.34793
2.22714
2.10642
1.98576
1.86516
1.74462
1.62412
1.50367
1.38326
1.26288
1.14254
1.02222
0.901931
0.781659
0.661403
0.541161
0.420928
0.3007
0.180475
0.060248
9.02958
9.22446
9.40104
9.55889
9.69778
9.81765
9.91865
10.0011
10.0654
10.1123
10.1424
10.1566
10.1558
10.1409
10.1129
10.0728
10.0216
9.96033
9.88988
9.81118
9.72509
9.63242
9.53394
9.43034
9.32227
9.21033
9.09504
8.97689
8.85632
8.7337
8.60939
8.48369
8.35687
8.22916
8.10076
7.97185
7.84259
7.71311
7.58351
7.45389
7.32432
7.19488
7.06562
6.93657
6.80778
6.67927
6.55106
6.42316
6.29559
6.16835
6.04143
5.91486
5.7886
5.66267
5.53706
5.41175
5.28674
5.16202
5.03758
4.9134
4.78948
4.6658
4.54236
4.41914
4.29613
4.17332
4.0507
3.92825
3.80598
3.68387
3.56191
3.44009
3.3184
3.19684
3.07539
2.95406
2.83283
2.71169
2.59064
2.46968
2.34879
2.22798
2.10723
1.98655
1.86592
1.74534
1.62482
1.50433
1.38389
1.26348
1.1431
1.02276
0.902433
0.782131
0.661847
0.541577
0.421318
0.301067
0.180819
0.060572
8.81922
9.00899
9.1817
9.33698
9.47458
9.59446
9.69672
9.78159
9.84949
9.90091
9.93648
9.95691
9.96298
9.95552
9.93541
9.90352
9.86075
9.80799
9.74608
9.67586
9.59814
9.51366
9.42313
9.32723
9.22656
9.12169
9.01314
8.90139
8.78686
8.66995
8.55099
8.4303
8.30815
8.1848
8.06045
7.9353
7.80951
7.68323
7.55658
7.42967
7.3026
7.17544
7.04827
6.92113
6.79407
6.66714
6.54037
6.41377
6.28738
6.1612
6.03525
5.90953
5.78406
5.65882
5.53383
5.40907
5.28456
5.16027
5.03622
4.91238
4.78876
4.66534
4.54213
4.4191
4.29626
4.17359
4.0511
3.92876
3.80657
3.68453
3.56262
3.44085
3.31919
3.19765
3.07622
2.9549
2.83366
2.71252
2.59147
2.47049
2.34959
2.22876
2.10799
1.98728
1.86662
1.74602
1.62547
1.50495
1.38448
1.26405
1.14364
1.02327
0.902914
0.782586
0.662277
0.541983
0.421701
0.301429
0.181163
0.060899
8.62536
8.81058
8.97982
9.13273
9.26912
9.3889
9.49216
9.57908
9.65
9.70536
9.74567
9.77156
9.78371
9.78284
9.76972
9.74514
9.7099
9.66478
9.61058
9.54806
9.47794
9.40094
9.31771
9.22888
9.13504
9.03673
8.93445
8.82866
8.7198
8.60823
8.49431
8.37835
8.26064
8.14143
8.02094
7.89938
7.77691
7.65371
7.52991
7.40563
7.28097
7.15603
7.03088
6.9056
6.78024
6.65486
6.5295
6.40418
6.27895
6.15383
6.02883
5.90397
5.77927
5.65473
5.53035
5.40616
5.28214
5.1583
5.03463
4.91114
4.78783
4.66468
4.5417
4.41888
4.29622
4.1737
4.05134
3.92911
3.80702
3.68505
3.56321
3.44148
3.31987
3.19836
3.07695
2.95564
2.83441
2.71327
2.59221
2.47123
2.35032
2.22947
2.10868
1.98795
1.86728
1.74665
1.62607
1.50554
1.38504
1.26458
1.14415
1.02375
0.903374
0.783022
0.662691
0.542376
0.422075
0.301785
0.181503
0.061227
8.44699
8.62813
8.79425
8.94502
9.08025
9.19987
9.30392
9.39257
9.46609
9.52484
9.56929
9.59996
9.61745
9.6224
9.61549
9.59742
9.56891
9.53067
9.48342
9.42784
9.36464
9.29444
9.21788
9.13554
9.04798
8.95573
8.85926
8.75902
8.65543
8.54886
8.43967
8.32817
8.21463
8.09934
7.98251
7.86435
7.74506
7.6248
7.50372
7.38195
7.25962
7.13681
7.01363
6.89015
6.76644
6.64257
6.51858
6.39452
6.27042
6.14633
6.02226
5.89825
5.77431
5.65046
5.52671
5.40307
5.27954
5.15614
5.03287
4.90973
4.78673
4.66385
4.54111
4.4185
4.29602
4.17367
4.05144
3.92933
3.80734
3.68545
3.56368
3.44201
3.32044
3.19897
3.07759
2.95629
2.83508
2.71394
2.59289
2.4719
2.35098
2.23012
2.10932
1.98857
1.86788
1.74724
1.62664
1.50608
1.38556
1.26508
1.14463
1.02421
0.90381
0.783438
0.663088
0.542755
0.422438
0.302134
0.181839
0.061552
8.28321
8.46072
8.62402
8.77285
8.907
9.02641
9.13109
9.22119
9.29694
9.35864
9.40668
9.44155
9.46374
9.47383
9.47242
9.46015
9.43765
9.40557
9.36456
9.31527
9.25832
9.19431
9.12382
9.04742
8.96563
8.87895
8.78784
8.69273
8.59404
8.49213
8.38734
8.28
8.17039
8.05878
7.9454
7.83047
7.71418
7.59671
7.47822
7.35885
7.23873
7.11797
6.99667
6.87493
6.75281
6.63039
6.50772
6.38488
6.26189
6.1388
6.01565
5.89247
5.76927
5.64609
5.52295
5.39985
5.27682
5.15386
5.03098
4.90819
4.7855
4.6629
4.5404
4.418
4.2957
4.17351
4.05142
3.92943
3.80754
3.68575
3.56405
3.44244
3.32092
3.19948
3.07813
2.95686
2.83566
2.71454
2.59349
2.4725
2.35157
2.23071
2.1099
1.98914
1.86844
1.74778
1.62716
1.50658
1.38605
1.26554
1.14508
1.02463
0.904222
0.783834
0.663467
0.543119
0.422788
0.302472
0.182167
0.061873
8.13323
8.30749
8.46829
8.61534
8.74849
8.86766
8.97285
9.06418
9.14183
9.20608
9.25727
9.2958
9.32213
9.33676
9.34023
9.3331
9.31596
9.2894
9.254
9.21036
9.15905
9.10065
9.03569
8.9647
8.88817
8.80659
8.72041
8.63003
8.53586
8.43826
8.33757
8.23411
8.12816
8.01999
7.90984
7.79793
7.68447
7.56964
7.4536
7.3365
7.21849
7.09967